# vtk DataFile Version 3.0
Cell Positions with cell_type attribute
ASCII
DATASET POLYDATA
POINTS 208 float
3584.0 4403.7 51.62943266115752
3513.8 4402.5 62.96169891644357
3490.8 4403.6 61.65488120193067
3456.3 4407.2 56.207108462447025
3569.5 4407.8 57.68196434834599
3421.8 4406.5 47.580190931805944
3501.9 4409.9 65.43937494101942
3590.4 4418.9 55.257477911751906
3548.3 4419.6 66.52674097992461
3581.6 4417.3 58.381451018152376
3503.5 4418.0 68.49578761179129
3518.2 4420.1 69.80240446953611
3579.1 4422.5 61.19971953969922
3535.2 4401.6 60.466770154648984
3469.7 4404.4 58.46247406645898
3475.7 4402.6 59.8084898061701
3525.7 4403.8 62.66477277779739
3508.1 4404.4 63.525997460375265
3544.0 4406.0 61.05523389293058
3482.3 4406.0 60.96127211912178
3515.8 4408.4 65.67425194997071
3571.3 4416.2 60.91998779171654
3492.5 4416.7 66.41957326298828
3538.4 4421.2 68.20761564330908
3510.1 4418.1 69.20947172661015
3445.6 4424.2 60.303232721935274
3510.2 4424.8 70.8967893177115
3598.3 4425.8 53.49081424219297
3565.9 4425.1 65.40008751111453
3433.5 4424.9 57.419401765261966
3461.2 4426.9 64.35710265861671
3517.4 4428.1 72.07531878799884
3561.3 4429.4 67.87007677087117
3580.4 4429.1 62.261704254767295
3423.9 4428.3 55.58405816116165
3453.1 4428.6 63.662717471070266
3411.7 4429.3 50.753178460424806
3432.3 4431.5 59.13604552166945
3526.1 4430.3 72.28099062754907
3543.4 4434.7 71.91206021094004
3478.5 4431.4 67.7345345387148
3596.2 4433.7 55.99318189292834
3568.0 4434.2 67.51059196076727
3468.8 4436.0 67.60446083006728
3518.0 4434.9 73.07333638486631
3457.0 4437.0 66.02725495812936
3417.1 4438.1 55.18298150751575
3530.8 4438.3 73.85084216804968
3563.4 4437.2 69.08082950879052
3525.6 4441.7 74.84021415260003
3572.3 4439.2 67.00872236415235
3578.8 4440.5 64.75288099176653
3433.3 4443.7 61.81347961496176
3477.5 4443.4 69.54380136348236
3424.4 4445.0 59.38753873872252
3536.3 4443.9 74.15914643726609
3585.5 4444.3 62.112008511772466
3402.0 4444.8 49.35864917460549
3547.3 4445.8 72.9946849816495
3454.1 4446.2 66.49369557476678
3460.0 4448.2 67.58561842755381
3419.5 4449.0 57.84604415957362
3502.1 4451.3 72.51224137031815
3475.7 4452.5 70.29233669548172
3531.5 4450.9 74.82863698593262
3596.4 4451.4 57.22864460378209
3402.2 4453.7 49.856891300247106
3424.8 4454.6 61.16633290984266
3434.6 4456.0 63.57244998450523
3554.3 4456.2 72.97009381644854
3507.1 4457.8 73.33344394723683
3480.7 4460.6 71.61873722573809
3536.7 4460.6 74.7241730146179
3559.8 4461.0 72.0978671091529
3441.8 4460.0 64.97014582022761
3576.6 4460.2 66.36229778730909
3430.7 4461.1 62.77186520701841
3494.8 4464.1 71.67596857602629
3550.1 4461.9 73.74081821525348
3565.8 4462.1 70.2592256411784
3524.9 4461.7 74.320324304614
3583.8 4465.2 63.353852362723664
3424.2 4463.5 60.248379992270436
3446.7 4466.7 65.43890726845017
3553.5 4466.0 73.24031108621654
3433.4 4467.1 62.80446014952037
3560.7 4469.6 71.45805116142489
3427.0 4470.4 60.68457688258288
3513.4 4469.8 73.69912986614378
3509.2 4472.5 73.00299192531206
3543.7 4472.7 73.21695078717329
3589.5 4473.1 60.64121734216985
3569.5 4473.8 68.32551162447433
3586.5 4478.0 61.68712354501921
3421.5 4478.8 56.93991397659696
3517.7 4477.6 73.15351017327781
3580.4 4479.0 63.90906059609294
3466.9 4480.2 66.53963626493221
3542.2 4482.8 71.42922803058943
3550.2 4484.3 70.42979599381027
3426.1 4484.3 57.68657255469522
3512.3 4485.8 70.78509887161151
3596.7 4486.7 55.59378800716999
3445.9 4489.9 61.95449455693711
3485.0 4492.4 67.94961462533153
3569.8 4493.0 64.5863043295647
3545.6 4494.4 68.92502541590657
3435.1 4502.2 57.39262775868136
3485.9 4499.4 67.35672520973404
3558.2 4502.3 65.8528418941782
3491.5 4511.6 66.03575308854266
3558.7 4511.0 64.33940931013899
3565.7 4514.3 62.65180306041911
3585.2 4516.2 56.200373804592154
3597.0 4519.1 50.99610890320649
3442.5 4519.1 57.1244918785241
3575.0 4516.3 59.74736940370106
3559.8 4519.3 62.337599456358326
3513.5 4522.2 64.34785360145857
3461.0 4519.6 61.93324425090999
3452.5 4527.4 58.69358779488793
3571.0 4523.5 59.392015030266236
3466.5 4524.5 62.104831475975416
3522.2 4527.2 63.065845692836135
3473.8 4530.0 61.90887139791577
3577.1 4534.0 55.2013993947015
3456.8 4538.7 57.73411170460579
3487.4 4537.3 61.81680486186158
3543.0 4540.0 58.531492439432235
3578.1 4540.8 53.30670344459785
3493.8 4540.6 61.977239941805635
3437.3 4541.6 51.45119527560355
3587.2 4544.6 49.86589642295528
3518.3 4542.9 60.19144051205543
3480.8 4548.3 59.08469098470501
3500.1 4548.5 59.65236889654214
3559.6 4548.3 54.81933356592677
3519.5 4550.4 58.43333462484695
3474.5 4552.2 57.02584960338565
3555.7 4556.7 53.192106062452794
3486.0 4561.9 55.43592815213585
3503.9 4563.8 55.323659090731454
3494.4 4570.6 53.293835796051596
3464.2 4572.2 49.52491490804169
3444.5 4572.2 45.760371864018154
3466.5 4579.3 47.70706391981134
3502.2 4583.0 48.72159441325432
3598.3 4583.4 38.21612858417758
3576.5 4585.2 43.14002552437501
3567.2 4587.2 44.09201962594007
3510.1 4591.1 45.72702167934733
3573.9 4592.3 42.16271319672457
3453.2 4595.2 40.376327646683826
3569.5 4598.6 41.497322423911555
3575.7 4598.1 40.02426156149907
3453.0 4423.3 61.19691206157293
3407.0 4477.6 49.92690045117094
3458.7 4503.5 61.9549917736223
3480.1 4503.5 65.25891463964304
3452.1 4509.2 60.00061923641648
3402.8 4511.0 44.17148552968049
3431.9 4513.9 53.989970786642154
3412.8 4516.6 47.10075044628927
3431.4 4520.6 52.730849569726374
3402.0 4522.1 42.56475206354049
3417.3 4527.5 46.92576323754909
3458.0 4529.7 58.95250647777073
3408.9 4534.7 43.212537826867724
3472.4 4539.8 58.971787982851254
3416.7 4539.7 44.79297737211216
3406.2 4549.6 39.8332254079435
3441.9 4549.1 50.15308803528445
3418.3 4547.9 43.707587147103865
3493.5 4555.9 56.965531108888754
3413.5 4560.6 39.93966672128231
3446.9 4559.9 48.64631379529966
3419.5 4562.7 41.10390822047014
3544.7 4568.7 49.939011598080015
3412.1 4569.3 37.7803810040352
3435.4 4569.8 43.523249276262845
3503.3 4571.5 52.14811228760719
3540.1 4574.4 48.58966685818416
3553.5 4579.6 46.5026761932703
3442.2 4582.7 41.59554291757345
3411.5 4580.8 35.16860990409587
3545.3 4580.7 46.549284578677174
3483.1 4590.7 44.099849071889366
3547.5 4586.2 44.748356573528184
3421.3 4586.9 36.03475174700732
3470.1 4590.1 43.361186947113296
3425.9 4593.5 35.520036998573254
3557.1 4591.8 42.57278071889779
3539.5 4593.8 42.69647089527294
3517.0 4595.5 43.27564256892234
3420.9 4598.6 33.52610466982779
3523.6 4597.3 42.28523760199927
3557.9 4407.3 58.209699002099455
3461.6 4434.1 65.50347023134833
3500.0 4489.8 68.13092641173141
3559.0 4491.5 66.52253687808917
3502.4 4496.8 67.1143080202887
3570.0 4501.1 62.37345735949502
3497.2 4507.9 65.44374260077123
3573.7 4508.7 60.25383458362534
3557.6 4533.2 57.7041328272051
3590.2 4553.8 45.120200845776786
3582.4 4592.2 39.10412204421591
3582.1 4598.8 37.31276566827566

VERTICES 208 416
1 0
1 1
1 2
1 3
1 4
1 5
1 6
1 7
1 8
1 9
1 10
1 11
1 12
1 13
1 14
1 15
1 16
1 17
1 18
1 19
1 20
1 21
1 22
1 23
1 24
1 25
1 26
1 27
1 28
1 29
1 30
1 31
1 32
1 33
1 34
1 35
1 36
1 37
1 38
1 39
1 40
1 41
1 42
1 43
1 44
1 45
1 46
1 47
1 48
1 49
1 50
1 51
1 52
1 53
1 54
1 55
1 56
1 57
1 58
1 59
1 60
1 61
1 62
1 63
1 64
1 65
1 66
1 67
1 68
1 69
1 70
1 71
1 72
1 73
1 74
1 75
1 76
1 77
1 78
1 79
1 80
1 81
1 82
1 83
1 84
1 85
1 86
1 87
1 88
1 89
1 90
1 91
1 92
1 93
1 94
1 95
1 96
1 97
1 98
1 99
1 100
1 101
1 102
1 103
1 104
1 105
1 106
1 107
1 108
1 109
1 110
1 111
1 112
1 113
1 114
1 115
1 116
1 117
1 118
1 119
1 120
1 121
1 122
1 123
1 124
1 125
1 126
1 127
1 128
1 129
1 130
1 131
1 132
1 133
1 134
1 135
1 136
1 137
1 138
1 139
1 140
1 141
1 142
1 143
1 144
1 145
1 146
1 147
1 148
1 149
1 150
1 151
1 152
1 153
1 154
1 155
1 156
1 157
1 158
1 159
1 160
1 161
1 162
1 163
1 164
1 165
1 166
1 167
1 168
1 169
1 170
1 171
1 172
1 173
1 174
1 175
1 176
1 177
1 178
1 179
1 180
1 181
1 182
1 183
1 184
1 185
1 186
1 187
1 188
1 189
1 190
1 191
1 192
1 193
1 194
1 195
1 196
1 197
1 198
1 199
1 200
1 201
1 202
1 203
1 204
1 205
1 206
1 207

POINT_DATA 208
SCALARS cell_type int 1
LOOKUP_TABLE default
0
0
0
0
0
0
0
0
0
0
0
0
0
0
0
0
0
0
0
0
0
0
0
0
0
0
0
0
0
0
0
0
0
0
0
0
0
0
0
0
0
0
0
0
0
0
0
0
0
0
0
0
0
0
0
0
0
0
0
0
0
0
0
0
0
0
0
0
0
0
0
0
0
0
0
0
0
0
0
0
0
0
0
0
0
0
0
0
0
0
0
0
0
0
0
0
0
0
0
0
0
0
0
0
0
0
0
0
0
0
0
0
0
0
0
0
0
0
0
0
0
0
0
0
0
0
0
0
0
0
0
0
0
0
0
0
0
0
0
0
0
0
0
0
0
0
0
0
0
0
0
0
0
0
0
1
1
1
1
1
1
1
1
1
1
1
1
1
1
1
1
1
1
1
1
1
1
1
1
1
1
1
1
1
1
1
1
1
1
1
1
1
1
1
1
1
2
2
2
2
2
2
2
2
2
2
2
2
