# vtk DataFile Version 3.0
Cell Positions with cell_type attribute
ASCII
DATASET POLYDATA
POINTS 208 float
3584.0 4403.7 0.0
3513.8 4402.5 0.0
3490.8 4403.6 0.0
3456.3 4407.2 0.0
3569.5 4407.8 0.0
3421.8 4406.5 0.0
3501.9 4409.9 0.0
3590.4 4418.9 0.0
3548.3 4419.6 0.0
3581.6 4417.3 0.0
3503.5 4418.0 0.0
3518.2 4420.1 0.0
3579.1 4422.5 0.0
3535.2 4401.6 0.0
3469.7 4404.4 0.0
3475.7 4402.6 0.0
3525.7 4403.8 0.0
3508.1 4404.4 0.0
3544.0 4406.0 0.0
3482.3 4406.0 0.0
3515.8 4408.4 0.0
3571.3 4416.2 0.0
3492.5 4416.7 0.0
3538.4 4421.2 0.0
3510.1 4418.1 0.0
3445.6 4424.2 0.0
3510.2 4424.8 0.0
3598.3 4425.8 0.0
3565.9 4425.1 0.0
3433.5 4424.9 0.0
3461.2 4426.9 0.0
3517.4 4428.1 0.0
3561.3 4429.4 0.0
3580.4 4429.1 0.0
3423.9 4428.3 0.0
3453.1 4428.6 0.0
3411.7 4429.3 0.0
3432.3 4431.5 0.0
3526.1 4430.3 0.0
3543.4 4434.7 0.0
3478.5 4431.4 0.0
3596.2 4433.7 0.0
3568.0 4434.2 0.0
3468.8 4436.0 0.0
3518.0 4434.9 0.0
3457.0 4437.0 0.0
3417.1 4438.1 0.0
3530.8 4438.3 0.0
3563.4 4437.2 0.0
3525.6 4441.7 0.0
3572.3 4439.2 0.0
3578.8 4440.5 0.0
3433.3 4443.7 0.0
3477.5 4443.4 0.0
3424.4 4445.0 0.0
3536.3 4443.9 0.0
3585.5 4444.3 0.0
3402.0 4444.8 0.0
3547.3 4445.8 0.0
3454.1 4446.2 0.0
3460.0 4448.2 0.0
3419.5 4449.0 0.0
3502.1 4451.3 0.0
3475.7 4452.5 0.0
3531.5 4450.9 0.0
3596.4 4451.4 0.0
3402.2 4453.7 0.0
3424.8 4454.6 0.0
3434.6 4456.0 0.0
3554.3 4456.2 0.0
3507.1 4457.8 0.0
3480.7 4460.6 0.0
3536.7 4460.6 0.0
3559.8 4461.0 0.0
3441.8 4460.0 0.0
3576.6 4460.2 0.0
3430.7 4461.1 0.0
3494.8 4464.1 0.0
3550.1 4461.9 0.0
3565.8 4462.1 0.0
3524.9 4461.7 0.0
3583.8 4465.2 0.0
3424.2 4463.5 0.0
3446.7 4466.7 0.0
3553.5 4466.0 0.0
3433.4 4467.1 0.0
3560.7 4469.6 0.0
3427.0 4470.4 0.0
3513.4 4469.8 0.0
3509.2 4472.5 0.0
3543.7 4472.7 0.0
3589.5 4473.1 0.0
3569.5 4473.8 0.0
3586.5 4478.0 0.0
3421.5 4478.8 0.0
3517.7 4477.6 0.0
3580.4 4479.0 0.0
3466.9 4480.2 0.0
3542.2 4482.8 0.0
3550.2 4484.3 0.0
3426.1 4484.3 0.0
3512.3 4485.8 0.0
3596.7 4486.7 0.0
3445.9 4489.9 0.0
3485.0 4492.4 0.0
3569.8 4493.0 0.0
3545.6 4494.4 0.0
3435.1 4502.2 0.0
3485.9 4499.4 0.0
3558.2 4502.3 0.0
3491.5 4511.6 0.0
3558.7 4511.0 0.0
3565.7 4514.3 0.0
3585.2 4516.2 0.0
3597.0 4519.1 0.0
3442.5 4519.1 0.0
3575.0 4516.3 0.0
3559.8 4519.3 0.0
3513.5 4522.2 0.0
3461.0 4519.6 0.0
3452.5 4527.4 0.0
3571.0 4523.5 0.0
3466.5 4524.5 0.0
3522.2 4527.2 0.0
3473.8 4530.0 0.0
3577.1 4534.0 0.0
3456.8 4538.7 0.0
3487.4 4537.3 0.0
3543.0 4540.0 0.0
3578.1 4540.8 0.0
3493.8 4540.6 0.0
3437.3 4541.6 0.0
3587.2 4544.6 0.0
3518.3 4542.9 0.0
3480.8 4548.3 0.0
3500.1 4548.5 0.0
3559.6 4548.3 0.0
3519.5 4550.4 0.0
3474.5 4552.2 0.0
3555.7 4556.7 0.0
3486.0 4561.9 0.0
3503.9 4563.8 0.0
3494.4 4570.6 0.0
3464.2 4572.2 0.0
3444.5 4572.2 0.0
3466.5 4579.3 0.0
3502.2 4583.0 0.0
3598.3 4583.4 0.0
3576.5 4585.2 0.0
3567.2 4587.2 0.0
3510.1 4591.1 0.0
3573.9 4592.3 0.0
3453.2 4595.2 0.0
3569.5 4598.6 0.0
3575.7 4598.1 0.0
3453.0 4423.3 0.0
3407.0 4477.6 0.0
3458.7 4503.5 0.0
3480.1 4503.5 0.0
3452.1 4509.2 0.0
3402.8 4511.0 0.0
3431.9 4513.9 0.0
3412.8 4516.6 0.0
3431.4 4520.6 0.0
3402.0 4522.1 0.0
3417.3 4527.5 0.0
3458.0 4529.7 0.0
3408.9 4534.7 0.0
3472.4 4539.8 0.0
3416.7 4539.7 0.0
3406.2 4549.6 0.0
3441.9 4549.1 0.0
3418.3 4547.9 0.0
3493.5 4555.9 0.0
3413.5 4560.6 0.0
3446.9 4559.9 0.0
3419.5 4562.7 0.0
3544.7 4568.7 0.0
3412.1 4569.3 0.0
3435.4 4569.8 0.0
3503.3 4571.5 0.0
3540.1 4574.4 0.0
3553.5 4579.6 0.0
3442.2 4582.7 0.0
3411.5 4580.8 0.0
3545.3 4580.7 0.0
3483.1 4590.7 0.0
3547.5 4586.2 0.0
3421.3 4586.9 0.0
3470.1 4590.1 0.0
3425.9 4593.5 0.0
3557.1 4591.8 0.0
3539.5 4593.8 0.0
3517.0 4595.5 0.0
3420.9 4598.6 0.0
3523.6 4597.3 0.0
3557.9 4407.3 0.0
3461.6 4434.1 0.0
3500.0 4489.8 0.0
3559.0 4491.5 0.0
3502.4 4496.8 0.0
3570.0 4501.1 0.0
3497.2 4507.9 0.0
3573.7 4508.7 0.0
3557.6 4533.2 0.0
3590.2 4553.8 0.0
3582.4 4592.2 0.0
3582.1 4598.8 0.0

VERTICES 208 416
1 0
1 1
1 2
1 3
1 4
1 5
1 6
1 7
1 8
1 9
1 10
1 11
1 12
1 13
1 14
1 15
1 16
1 17
1 18
1 19
1 20
1 21
1 22
1 23
1 24
1 25
1 26
1 27
1 28
1 29
1 30
1 31
1 32
1 33
1 34
1 35
1 36
1 37
1 38
1 39
1 40
1 41
1 42
1 43
1 44
1 45
1 46
1 47
1 48
1 49
1 50
1 51
1 52
1 53
1 54
1 55
1 56
1 57
1 58
1 59
1 60
1 61
1 62
1 63
1 64
1 65
1 66
1 67
1 68
1 69
1 70
1 71
1 72
1 73
1 74
1 75
1 76
1 77
1 78
1 79
1 80
1 81
1 82
1 83
1 84
1 85
1 86
1 87
1 88
1 89
1 90
1 91
1 92
1 93
1 94
1 95
1 96
1 97
1 98
1 99
1 100
1 101
1 102
1 103
1 104
1 105
1 106
1 107
1 108
1 109
1 110
1 111
1 112
1 113
1 114
1 115
1 116
1 117
1 118
1 119
1 120
1 121
1 122
1 123
1 124
1 125
1 126
1 127
1 128
1 129
1 130
1 131
1 132
1 133
1 134
1 135
1 136
1 137
1 138
1 139
1 140
1 141
1 142
1 143
1 144
1 145
1 146
1 147
1 148
1 149
1 150
1 151
1 152
1 153
1 154
1 155
1 156
1 157
1 158
1 159
1 160
1 161
1 162
1 163
1 164
1 165
1 166
1 167
1 168
1 169
1 170
1 171
1 172
1 173
1 174
1 175
1 176
1 177
1 178
1 179
1 180
1 181
1 182
1 183
1 184
1 185
1 186
1 187
1 188
1 189
1 190
1 191
1 192
1 193
1 194
1 195
1 196
1 197
1 198
1 199
1 200
1 201
1 202
1 203
1 204
1 205
1 206
1 207

POINT_DATA 208
SCALARS cell_type int 1
LOOKUP_TABLE default
0
0
0
0
0
0
0
0
0
0
0
0
0
0
0
0
0
0
0
0
0
0
0
0
0
0
0
0
0
0
0
0
0
0
0
0
0
0
0
0
0
0
0
0
0
0
0
0
0
0
0
0
0
0
0
0
0
0
0
0
0
0
0
0
0
0
0
0
0
0
0
0
0
0
0
0
0
0
0
0
0
0
0
0
0
0
0
0
0
0
0
0
0
0
0
0
0
0
0
0
0
0
0
0
0
0
0
0
0
0
0
0
0
0
0
0
0
0
0
0
0
0
0
0
0
0
0
0
0
0
0
0
0
0
0
0
0
0
0
0
0
0
0
0
0
0
0
0
0
0
0
0
0
0
0
1
1
1
1
1
1
1
1
1
1
1
1
1
1
1
1
1
1
1
1
1
1
1
1
1
1
1
1
1
1
1
1
1
1
1
1
1
1
1
1
1
2
2
2
2
2
2
2
2
2
2
2
2
