# vtk DataFile Version 3.0
Chemokine Concentration Surface (Height = concentration)
ASCII
DATASET STRUCTURED_GRID
DIMENSIONS 218 218 1
POINTS 47524 float
3392.0 4391.6 33.37475830177194
3392.9967741935484 4391.6 33.62464350984832
3393.993548387097 4391.6 33.87553886917816
3394.990322580645 4391.6 34.12740532618091
3395.9870967741936 4391.6 34.380201522228354
3396.983870967742 4391.6 34.63388359478408
3397.9806451612903 4391.6 34.88840493226641
3398.9774193548387 4391.6 35.14371587161097
3399.974193548387 4391.6 35.39976332574588
3400.9709677419355 4391.6 35.65649032652184
3401.967741935484 4391.6 35.913835467306846
3402.9645161290323 4391.6 36.17173222885985
3403.9612903225807 4391.6 36.43010817283771
3404.958064516129 4391.6 36.688883990234274
3405.9548387096775 4391.6 36.947972398428774
3406.951612903226 4391.6 37.207276891960355
3407.9483870967742 4391.6 37.46669037067787
3408.9451612903226 4391.6 37.7260936968553
3409.941935483871 4391.6 37.98535427239979
3410.9387096774194 4391.6 38.24432477968506
3411.935483870968 4391.6 38.50284229381406
3412.932258064516 4391.6 38.760728044870035
3413.9290322580646 4391.6 39.01778817376788
3414.925806451613 4391.6 39.27381586349523
3415.9225806451614 4391.6 39.52859520864686
3416.9193548387098 4391.6 39.78190707559936
3417.916129032258 4391.6 40.0335369760626
3418.9129032258065 4391.6 40.28328462667322
3419.909677419355 4391.6 40.53097444146908
3420.9064516129033 4391.6 40.7764658023911
3421.9032258064517 4391.6 41.01966171333988
3422.9 4391.6 41.260514492565044
3423.8967741935485 4391.6 41.4990275465488
3424.893548387097 4391.6 41.735252925011245
3425.8903225806453 4391.6 41.96928510050716
3426.8870967741937 4391.6 42.20125202886133
3427.883870967742 4391.6 42.431304866167544
3428.8806451612904 4391.6 42.65960769958948
3429.877419354839 4391.6 42.88632836384799
3430.874193548387 4391.6 43.11163099745168
3431.8709677419356 4391.6 43.33567057552866
3432.867741935484 4391.6 43.55858932837512
3433.8645161290324 4391.6 43.78051475039636
3434.8612903225808 4391.6 44.00155881452558
3435.858064516129 4391.6 44.221818002379464
3436.8548387096776 4391.6 44.441373806219474
3437.851612903226 4391.6 44.660293427104016
3438.8483870967743 4391.6 44.87863046583761
3439.8451612903227 4391.6 45.09642546967025
3440.841935483871 4391.6 45.31370625500474
3441.8387096774195 4391.6 45.53048797555018
3442.835483870968 4391.6 45.74677294944299
3443.8322580645163 4391.6 45.96255030143046
3444.8290322580647 4391.6 46.17779552023099
3445.825806451613 4391.6 46.39247007777476
3446.8225806451615 4391.6 46.60652130419077
3447.81935483871 4391.6 46.81988275356146
3448.8161290322582 4391.6 47.032475318264844
3449.8129032258066 4391.6 47.244209335965245
3450.809677419355 4391.6 47.45498786133136
3451.8064516129034 4391.6 47.66471112543814
3452.803225806452 4391.6 47.87328197388408
3453.8 4391.6 48.08061177994976
3454.7967741935486 4391.6 48.28662602605442
3455.793548387097 4391.6 48.49126852057522
3456.7903225806454 4391.6 48.69450316234734
3457.7870967741937 4391.6 48.89631234940486
3458.783870967742 4391.6 49.09669155696455
3459.7806451612905 4391.6 49.295640212070026
3460.777419354839 4391.6 49.4931496441963
3461.7741935483873 4391.6 49.68918945901154
3462.7709677419357 4391.6 49.883694065682306
3463.767741935484 4391.6 50.076551230998014
3464.7645161290325 4391.6 50.26759440681428
3465.761290322581 4391.6 50.456600154877876
3466.7580645161293 4391.6 50.64329126549805
3467.7548387096776 4391.6 50.827345210209884
3468.751612903226 4391.6 51.00840663543569
3469.7483870967744 4391.6 51.18610212568969
3470.745161290323 4391.6 51.36005585246801
3471.741935483871 4391.6 51.529905976382295
3472.7387096774196 4391.6 51.695323046539755
3473.735483870968 4391.6 51.85603184352056
3474.7322580645164 4391.6 52.011836160522414
3475.7290322580648 4391.6 52.162642381016546
3476.725806451613 4391.6 52.3084746269795
3477.7225806451615 4391.6 52.44947441351073
3478.71935483871 4391.6 52.585882018930896
3479.7161290322583 4391.6 52.71800305104038
3480.7129032258067 4391.6 52.84616832700724
3481.709677419355 4391.6 52.97069588440787
3482.7064516129035 4391.6 53.09186122240826
3483.703225806452 4391.6 53.20987808955212
3484.7000000000003 4391.6 53.32488944610411
3485.6967741935487 4391.6 53.4369673720191
3486.693548387097 4391.6 53.54612106484537
3487.6903225806454 4391.6 53.652312506565224
3488.687096774194 4391.6 53.75547892051457
3489.683870967742 4391.6 53.855559550561445
3490.6806451612906 4391.6 53.95252220681574
3491.677419354839 4391.6 54.04638367841625
3492.6741935483874 4391.6 54.13721867509014
3493.670967741936 4391.6 54.225154672568884
3494.667741935484 4391.6 54.310353890996616
3495.6645161290326 4391.6 54.392986914638314
3496.6612903225805 4391.6 54.47320384211823
3497.6580645161293 4391.6 54.55110815315151
3498.6548387096773 4391.6 54.626736511097036
3499.651612903226 4391.6 54.70004560769055
3500.648387096774 4391.6 54.77090567375815
3501.645161290323 4391.6 54.839099655172085
3502.641935483871 4391.6 54.9043270986237
3503.6387096774192 4391.6 54.96621213715076
3504.6354838709676 4391.6 55.02431524829434
3505.632258064516 4391.6 55.07814845328067
3506.6290322580644 4391.6 55.12719334185551
3507.625806451613 4391.6 55.170921017993884
3508.622580645161 4391.6 55.208813180319076
3509.6193548387096 4391.6 55.24038429138303
3510.616129032258 4391.6 55.265205759914735
3511.6129032258063 4391.6 55.282933192603835
3512.6096774193547 4391.6 55.29333597057888
3513.606451612903 4391.6 55.29632473233887
3514.6032258064515 4391.6 55.29196875790352
3515.6 4391.6 55.280494729448336
3516.5967741935483 4391.6 55.26226252210258
3517.5935483870967 4391.6 55.23772100015502
3518.590322580645 4391.6 55.20735335979262
3519.5870967741935 4391.6 55.17162410407889
3520.583870967742 4391.6 55.13093780679822
3521.5806451612902 4391.6 55.08561531528952
3522.5774193548386 4391.6 55.03588820475341
3523.574193548387 4391.6 54.981908351232704
3524.5709677419354 4391.6 54.92376669015298
3525.567741935484 4391.6 54.86151363072023
3526.564516129032 4391.6 54.7951735796668
3527.5612903225806 4391.6 54.72474809496997
3528.558064516129 4391.6 54.650206345326254
3529.5548387096774 4391.6 54.57146687120477
3530.5516129032258 4391.6 54.48837947314818
3531.548387096774 4391.6 54.400718601590846
3532.5451612903225 4391.6 54.30819842309723
3533.541935483871 4391.6 54.21051394303133
3534.5387096774193 4391.6 54.107402698228945
3535.5354838709677 4391.6 53.99871077389358
3536.532258064516 4391.6 53.8844411376789
3537.5290322580645 4391.6 53.7647667514983
3538.525806451613 4391.6 53.640004904668764
3539.5225806451613 4391.6 53.51056483064617
3540.5193548387097 4391.6 53.37688878813608
3541.516129032258 4391.6 53.23940433651459
3542.5129032258064 4391.6 53.09849657045442
3543.509677419355 4391.6 52.95449988505585
3544.506451612903 4391.6 52.80770327736814
3545.5032258064516 4391.6 52.6583617518404
3546.5 4391.6 52.506707732788314
3547.4967741935484 4391.6 52.352958863736504
3548.493548387097 4391.6 52.19732100458009
3549.490322580645 4391.6 52.03998699253884
3550.4870967741936 4391.6 51.88113263018728
3551.483870967742 4391.6 51.72091152207381
3552.4806451612903 4391.6 51.559450068649
3553.4774193548387 4391.6 51.396843426415934
3554.474193548387 4391.6 51.23315276846429
3555.4709677419355 4391.6 51.068403840452056
3556.467741935484 4391.6 50.902586628347784
3557.4645161290323 4391.6 50.73565590943538
3558.4612903225807 4391.6 50.567532501957984
3559.458064516129 4391.6 50.39810511729641
3560.4548387096775 4391.6 50.22723281664017
3561.451612903226 4391.6 50.05474815549848
3562.4483870967742 4391.6 49.88046114372856
3563.4451612903226 4391.6 49.70416413916743
3564.441935483871 4391.6 49.525637716673245
3565.4387096774194 4391.6 49.34465740703617
3566.435483870968 4391.6 49.161000992697026
3567.432258064516 4391.6 48.974455811996684
3568.4290322580646 4391.6 48.784825315536814
3569.425806451613 4391.6 48.591934004664665
3570.4225806451614 4391.6 48.395629923097374
3571.4193548387098 4391.6 48.195784096519304
3572.416129032258 4391.6 47.992286702506185
3573.4129032258065 4391.6 47.78504024201987
3574.409677419355 4391.6 47.57395049314728
3575.4064516129033 4391.6 47.35891649003857
3576.4032258064517 4391.6 47.139821148291404
3577.4 4391.6 46.91652443417054
3578.3967741935485 4391.6 46.68886110871289
3579.393548387097 4391.6 46.45664495873107
3580.3903225806453 4391.6 46.219680862172964
3581.3870967741937 4391.6 45.97778482161902
3582.383870967742 4391.6 45.73081020258972
3583.3806451612904 4391.6 45.47867619171425
3584.377419354839 4391.6 45.221392772869876
3585.374193548387 4391.6 44.95907631749194
3586.3709677419356 4391.6 44.69195174962207
3587.367741935484 4391.6 44.42034070839399
3588.3645161290324 4391.6 44.144638788687125
3589.3612903225808 4391.6 43.86528727281511
3590.358064516129 4391.6 43.5827450448774
3591.3548387096776 4391.6 43.29746495620056
3592.351612903226 4391.6 43.009876765928354
3593.3483870967743 4391.6 42.72037684709092
3594.3451612903227 4391.6 42.42932361111154
3595.341935483871 4391.6 42.13703709919377
3596.3387096774195 4391.6 41.84380120784987
3597.335483870968 4391.6 41.5498673027908
3598.3322580645163 4391.6 41.25545833680597
3599.3290322580647 4391.6 40.960772914527666
3600.325806451613 4391.6 40.66598899810435
3601.3225806451615 4391.6 40.37126711967099
3602.31935483871 4391.6 40.076753073031995
3603.3161290322582 4391.6 39.782580116172305
3604.3129032258066 4391.6 39.48887074414895
3605.309677419355 4391.6 39.19573810083512
3606.3064516129034 4391.6 38.90328709630412
3607.303225806452 4391.6 38.61161528977018
3608.3 4391.6 38.32081358917426
3392.0 4392.6 33.58621724360476
3392.9967741935484 4392.6 33.83956543680663
3393.993548387097 4392.6 34.09397994762106
3394.990322580645 4392.6 34.34942262574147
3395.9870967741936 4392.6 34.6058531190421
3396.983870967742 4392.6 34.86322868903719
3397.9806451612903 4392.6 35.121503977723975
3398.9774193548387 4392.6 35.3806307124773
3399.974193548387 4392.6 35.64055733292644
[...]
POINT_DATA 47524
SCALARS concentration float 1
LOOKUP_TABLE default
33.37475830177194
33.62464350984832
33.87553886917816
34.12740532618091
34.380201522228354
34.63388359478408
34.88840493226641
35.14371587161097
35.39976332574588
35.65649032652184
35.913835467306846
36.17173222885985
36.43010817283771
36.688883990234274
36.947972398428774
37.207276891960355
37.46669037067787
37.7260936968553
37.98535427239979
38.24432477968506
38.50284229381406
38.760728044870035
39.01778817376788
39.27381586349523
39.52859520864686
39.78190707559936
40.0335369760626
40.28328462667322
40.53097444146908
40.7764658023911
41.01966171333988
41.260514492565044
41.4990275465488
41.735252925011245
41.96928510050716
42.20125202886133
42.431304866167544
42.65960769958948
42.88632836384799
43.11163099745168
43.33567057552866
43.55858932837512
43.78051475039636
44.00155881452558
44.221818002379464
44.441373806219474
44.660293427104016
44.87863046583761
45.09642546967025
45.31370625500474
45.53048797555018
45.74677294944299
45.96255030143046
46.17779552023099
46.39247007777476
46.60652130419077
46.81988275356146
47.032475318264844
47.244209335965245
47.45498786133136
47.66471112543814
47.87328197388408
48.08061177994976
48.28662602605442
48.49126852057522
48.69450316234734
48.89631234940486
49.09669155696455
49.295640212070026
49.4931496441963
49.68918945901154
49.883694065682306
50.076551230998014
50.26759440681428
50.456600154877876
50.64329126549805
50.827345210209884
51.00840663543569
51.18610212568969
51.36005585246801
51.529905976382295
51.695323046539755
51.85603184352056
52.011836160522414
52.162642381016546
52.3084746269795
52.44947441351073
52.585882018930896
52.71800305104038
52.84616832700724
52.97069588440787
53.09186122240826
53.20987808955212
53.32488944610411
53.4369673720191
53.54612106484537
53.652312506565224
53.75547892051457
53.855559550561445
53.95252220681574
54.04638367841625
54.13721867509014
54.225154672568884
54.310353890996616
54.392986914638314
54.47320384211823
54.55110815315151
54.626736511097036
54.70004560769055
54.77090567375815
54.839099655172085
54.9043270986237
54.96621213715076
55.02431524829434
55.07814845328067
55.12719334185551
55.170921017993884
55.208813180319076
55.24038429138303
55.265205759914735
55.282933192603835
55.29333597057888
55.29632473233887
55.29196875790352
55.280494729448336
55.26226252210258
55.23772100015502
55.20735335979262
55.17162410407889
55.13093780679822
55.08561531528952
55.03588820475341
54.981908351232704
54.92376669015298
54.86151363072023
54.7951735796668
54.72474809496997
54.650206345326254
54.57146687120477
54.48837947314818
54.400718601590846
54.30819842309723
54.21051394303133
54.107402698228945
53.99871077389358
53.8844411376789
53.7647667514983
53.640004904668764
53.51056483064617
53.37688878813608
53.23940433651459
53.09849657045442
52.95449988505585
52.80770327736814
52.6583617518404
52.506707732788314
52.352958863736504
52.19732100458009
52.03998699253884
51.88113263018728
51.72091152207381
51.559450068649
51.396843426415934
51.23315276846429
51.068403840452056
50.902586628347784
50.73565590943538
50.567532501957984
50.39810511729641
50.22723281664017
50.05474815549848
49.88046114372856
49.70416413916743
49.525637716673245
49.34465740703617
49.161000992697026
48.974455811996684
48.784825315536814
48.591934004664665
48.395629923097374
48.195784096519304
47.992286702506185
47.78504024201987
47.57395049314728
47.35891649003857
47.139821148291404
46.91652443417054
46.68886110871289
46.45664495873107
46.219680862172964
45.97778482161902
45.73081020258972
45.47867619171425
45.221392772869876
44.95907631749194
44.69195174962207
44.42034070839399
44.144638788687125
43.86528727281511
43.5827450448774
43.29746495620056
43.009876765928354
42.72037684709092
42.42932361111154
42.13703709919377
41.84380120784987
41.5498673027908
41.25545833680597
40.960772914527666
40.66598899810435
40.37126711967099
40.076753073031995
39.782580116172305
39.48887074414895
39.19573810083512
38.90328709630412
38.61161528977018
38.32081358917426
33.58621724360476
33.83956543680663
34.09397994762106
34.34942262574147
34.6058531190421
34.86322868903719
35.121503977723975
35.3806307124773
35.64055733292644
35.90122852078938
36.16258461067366
36.42456085721128
36.68708653218083
36.95008382543166
37.213466526920165
37.477138476128665
37.740991782520055
38.004904850325985
38.268740287372324
38.532342845220754
38.79553762924329
39.05812893005714
39.31990015014261
39.58061540439298
39.840023414327625
40.09786422902757
40.35387902570192
40.6078227342392
40.8594785346909
41.108672547698056
41.35528652816148
41.599266346915854
41.84062463955036
42.079437108505886
42.31583324192006
42.54998323513965
42.78208336640415
43.01234193434943
43.240967286023356
43.4681587231267
43.69410040790472
43.91895792754793
44.14287693906348
44.36598326053648
44.588383832121906
44.810168080338926
45.03140934036293
45.25216610018468
45.472482919292425
45.69239094342436
45.91190799106992
46.13103823377942
46.349771538160205
46.56808258896549
46.78592997399814
47.00325548285564
47.21998394656846
47.43602400824758
47.65127023849263
47.86560695515994
48.07891393332921
48.29107386968626
48.50198100669446
48.711549799618325
48.91972206557622
49.126470865939964
49.3317995842098
49.535735299930856
49.7383165049157
49.9395762334504
50.13952254983167
50.3381189079284
50.535267126930684
50.73079561195926
50.92445493301555
51.1159218417826
51.304811214472444
51.490693577128575
51.67311465584135
51.85161392881579
52.025741934968735
52.195079897560674
52.359267025198456
52.518037632716144
52.67126205320727
52.81897707026196
52.96139035531989
53.09885213630784
53.23180104731423
53.360700615040386
53.4859828470847
53.608008186293475
53.72704291193224
53.84325053693131
53.956693651935204
54.06734502436669
54.17510886446177
54.27985301318932
54.38144982735578
54.47981893235022
54.574961449646786
54.66697558552571
54.75604847524514
54.842426756977844
54.9263745745695
55.00812971412714
55.08786635390947
55.16566862878859
55.2415153002952
55.315273590345
55.38669975906158
55.45544467672687
55.52106368450591
55.583030787011786
55.64075723467447
55.69361379855124
55.740955060532166
55.782143890480754
55.816575856877805
55.84370622713478
55.863084097457794
55.87439579674168
55.87751192715473
55.87252306331091
55.85974578988303
55.839688472495006
55.81298164240377
55.780291384114584
55.742238017469724
55.6993368914845
55.6519688604235
55.60037997205831
55.5447044995417
55.48500179729794
55.42129484429291
55.353597534032836
55.28192041703379
55.20625139226535
55.126517293764664
55.04254134287511
54.954016988699806
54.860518421677156
54.76155983821322
54.65669804870519
54.545650076935694
54.428381661455575
54.3051292139851
54.176348109714986
54.04261463140552
53.90452396219043
53.76261690252672
53.6173466363089
53.469079174014134
53.3181132589336
53.164705799698964
53.00909317159689
52.85150380996702
52.692161676026444
52.531282737874676
52.36906757024574
52.205692936080375
52.04130433874255
51.87601053726631
51.70988022055066
51.54294055733997
51.375177152416256
51.20653495860814
51.036919827122304
50.86620055500809
50.69421146262087
50.52075567687023
50.34560938562826
50.16852734254486
49.98924981648739
49.80751097888377
49.623048408571115
49.43561300673827
49.244978238212475
49.050947367041246
48.85335734864837
48.65207833916326
48.44700835547286
48.238063351442
48.02516371719636
47.80821884953617
47.58711195822362
47.36168770759732
47.13174566644716
46.89704272455551
46.65730726654134
46.412266427286205
46.161684792038926
45.90540877928815
45.64340715743398
45.37579699152953
45.10284739520264
44.8249600557959
44.542632532828605
44.25641441075499
43.966866150787226
43.674527107376086
43.37989497464001
43.083415710421725
42.78548136880856
42.48643298277173
42.18656609419828
41.886137229840756
41.58537027808031
41.28446221952906
40.983587994244935
40.68290448254454
40.382553676490936
40.08266516037839
39.78335802633575
39.484742342021846
39.18692027115007
38.88998692971933
38.59403104406467
33.797988463797346
34.05484667979708
34.31282948844025
34.57189978737868
34.83201841319529
35.09314398208099
35.35523268201279
35.618238001106675
35.882110373016914
36.14679671583979
36.41223983603366
36.678377663602554
36.945142279692945
37.212458693689626
37.48024332539456
37.748402151389605
38.016828487025805
38.285400402184656
38.553977817528626
38.82239940757043
39.09047955682457
39.358005781107416
39.62473723220844
39.89040512273344
40.15471607529815
40.41735940934089
40.67801909159084
40.93639037447959
41.19220002634711
41.445227731549124
41.69532516574526
41.94242899230728
42.18656493472458
42.42784201036767
42.66643828908427
42.90258129959387
43.13652686591476
43.368539686509386
43.59887779649361
43.82778173877326
44.055468225952154
44.28212746320461
44.50792308602758
44.73299371705632
44.95745532865856
45.18140381475277
45.40491737128671
45.628058438488935
45.85087506800511
46.07340165288749
46.2956590101799
46.51765384709741
46.73937768438358
46.96080536505052
47.18189335214194
47.40257812035966
47.62277507063971
47.84237852775556
48.06126348184107
48.27928974335435
48.49630901555425
48.71217497115224
48.926755724016566
49.13994719708379
49.35168503449759
49.56195222653282
49.77077981691184
49.978239039347336
50.18442476743671
50.389431813804215
50.59332694079552
50.79612023329234
50.9977397850601
51.198013596115345
51.39666211507333
51.59330361130092
51.78747205966506
51.97864358925292
52.166264294709
52.34977217387925
52.52861143416022
52.70224700562649
52.87019415109712
53.032073897381835
53.18768695079082
53.337076985333184
53.480547666479865
53.61861677140748
53.75192289951363
53.88112065873936
54.00679640690304
54.129417571666735
54.24931096378517
54.36665861055168
54.481502669360125
54.59375828792215
54.70323918361815
54.80970148209588
54.91290575006348
55.012687122206444
55.10901442013471
55.202018020731025
55.29197594348953
55.37926345761489
55.4642839107806
55.54740096820826
55.6288861162485
55.708886014893515
55.78740726093127
55.86431317577192
55.939327606071245
56.012042835983614
56.08193114582668
56.14836123416327
56.21062083069113
56.267945050294024
56.31954719757444
56.36464718653127
56.40249538518678
56.432397086384064
56.45375029131673
56.46610821619965
56.46926204556114
56.46331553147217
56.448710517174376
56.42617736192833
56.396619510484705
56.36097073808251
56.32006801573948
56.27456703906634
56.22490796485801
56.171326521016816
56.1139002006346
56.052615706184085
55.98743925826724
55.91836778434471
55.84544127590431
55.768707646926984
55.68814846173794
55.60359032156417
55.51463739703654
55.42066353398761
55.32089387931373
55.2145780083132
55.101207692178306
54.98068799578094
54.853376098723984
54.71997211801904
54.58132790564345
54.43826709569637
54.29147581005536
54.141472266579626
53.988631620824115
53.833235137661575
53.675519462020716
53.5157122323846
53.35404960491906
53.1907777503612
53.02614372436206
52.86038169242962
52.69369923979012
52.52626652256658
52.35820919815964
52.18960484882649
52.020482032777174
51.850821000555015
51.680555294195344
51.509573739564026
51.3377226507081
51.164808342350064
50.99060027224077
50.81483529228678
50.63722354924843
50.45745650160829
50.27521726448426
50.09019303672757
49.90208873929717
49.710640324949146
49.51562571156018
49.31687117005625
49.1142514007487
48.907682416468774
48.69710749002581
48.48247751648034
48.26372798219031
48.04075532899729
47.81339605126278
47.58141258574925
47.34449091761655
47.10225525825742
46.854303938175626
46.60026639741354
46.33987356650422
46.07302548563561
45.79983595419778
45.52063899313538
45.235955127495416
44.94642978525882
44.65276339882037
44.355650567986764
44.05573765023803
43.7535999661342
43.44973475751398
43.14456442631377
42.838445161622516
42.531677474295996
42.22451655770853
41.91718144479148
41.60986260040437
41.30272795784431
40.9959275809875
40.68959719125388
40.383860796560676
40.07883263091656
39.77461857653897
39.47131720437915
39.169020537535914
38.867814616310625
34.010023229375925
34.27043772103876
34.5320370742255
34.794785355144185
35.058644745759274
35.32357542179444
35.58953538555994
35.85648023689959
36.1243628606976
36.39313300344765
36.66273670425188
36.93311553728359
37.20420561341248
37.47593627893371
37.74822844042417
38.02099243907251
38.294125399604305
38.56750799509565
38.841000610248365
39.11443896740303
39.387629421302734
39.660344351027824
39.93231839312492
40.2032466544988
40.472786446713656
40.740564335386765
41.00619013969152
41.2692786462196
41.5294780490337
41.78650172038963
42.04015765910699
42.29036905475434
42.537180769172004
42.78075003277112
43.02132389615584
43.259209109822706
43.494740964542345
43.72825633841703
43.96007381480031
44.190481416032384
44.419730925240934
44.64803706520465
44.875579752320405
45.10250794207133
45.32894398931543
45.554987823224444
45.78072052693838
46.00620710976685
46.231498381386686
46.4566319056727
46.681632048426685
46.906509157416345
47.13125794161284
47.35585516509351
47.58025685502887
47.804395355973874
48.02817675129249
48.2514794076807
48.47415463973076
48.69603064916862
48.91692082284619
49.1366369980315
49.355007293336094
49.57189660875383
49.78722627207657
50.00098819458334
50.21324897334895
50.42414092574974
50.633839664244924
50.84253058332954
51.05036863309072
51.257436673232895
51.46370788817975
51.6690177771996
51.87305123469471
52.07534936428096
52.275337296125805
52.472367355813674
52.66576345998372
52.854849077809796
53.03895030531522
53.21738822542502
53.38949727492466
53.55470540922573
53.712673141483734
53.863430651471916
54.00742681103694
54.14544771861894
54.278443323928926
54.40734624664713
54.5329470977247
54.65583990516329
54.776414681487765
54.89486689016101
55.01120627294863
55.12526573601455
55.23672450660392
55.3451628315822
55.450155439916124
55.55138970742969
55.64877213055627
55.742480273504114
55.83293707647096
55.92071974770021
56.00644146284486
56.09064530651779
56.17373240566238
56.255926284525174
56.337263718006575
56.41759980041165
56.49661793343484
56.573840415116926
56.648640196110115
56.720257845892384
56.787828419956334
56.85041939756197
56.907073636650225
56.9568449073606
56.998816108200316
57.03210690072081
57.055900811051835
57.06952952447821
57.07262191408441
57.06526414422927
57.04807500881045
57.02213040837263
56.988758284611244
56.9492927062037
56.904873353696495
56.85632975156272
56.804148425685455
56.748506029409675
56.689352294746385
56.626526630689256
56.55988337818713
56.48938841033631
56.41514796856838
56.33734909464158
56.256123452275716
56.171375670296875
56.08263417328714
55.988991358159055
55.88920119875447
55.78196988040172
55.66637502425635
55.54221886555885
55.41010230374223
55.27118039597498
55.12677210908032
54.978040213743235
54.82584201993748
54.67073022600779
54.51303550419086
54.352969794842274
54.19071298340866
54.026466782373255
53.86047456143871
53.69301495919511
53.5243808087446
53.35485411229739
53.184684344450304
53.0140733695418
52.84316718889411
52.67205306705998
52.500760097388486
52.329261483242156
52.15747731829132
51.98527719733965
51.81248247212423
51.63886836397887
51.46416646781551
51.28806843313012
51.11023176027634
50.930288636030646
50.74785845317339
50.56256402689447
50.374050533452234
50.18200501731934
49.98617329958829
49.78637072654661
49.58248374560783
49.37446074128417
49.16229244498811
48.94598390585933
48.725521041910696
48.500835237766545
48.271769849491974
48.038053526916784
47.799287352040736
47.55495531025038
47.30446829529252
47.04724690656503
46.782834830530355
46.51101560326531
46.23189288805631
45.94590186470411
45.65374752005016
45.35629662131387
45.05446327610711
44.74911903211611
44.4410394656159
44.13088365352424
43.819196039354665
43.50642012501449
43.1929163287318
42.87897955300107
42.564854399844485
42.25074742126286
41.93683653236989
41.62327801623426
41.310211617373874
40.997764181599
40.68605222239862
40.37518371187811
40.06525932143649
39.756373278166315
39.448613957149284
39.14206429547843
34.22227090953162
34.48628705349754
34.75155018055488
35.01802561254181
35.28567699586049
35.55446622955262
35.82435335542635
36.09529639310026
36.367251097078956
36.6401706056187
36.91400494184731
37.188700316025646
37.46419816373095
37.740433838095996
38.01733485560299
38.29481857597022
38.57278918108044
38.85113381291896
39.12971774906193
39.4083785578565
39.68691931676561
39.96510124072353
40.24263650162587
40.51918265527583
40.794340888233116
41.06766106153456
41.33865683085362
41.60683330290159
41.87172711524685
42.13295450231462
42.39025813816916
42.64354090136748
42.89287662103523
43.13849446807293
43.38074196486074
43.62003737231488
43.85682306734698
44.09152820070835
44.3245440642714
44.55621157712291
44.78681812076438
45.01660042391141
45.245750641137214
45.47442356332362
45.70274366467475
45.93081127741666
46.158707571373945
46.38649823843555
46.61423589117941
46.8419612241924
47.06970298904056
47.29747682419648
47.525282979859185
47.753103004588255
47.98089553883612
48.20859151626413
48.43608933341945
48.66325092540206
48.8899001541525
49.11582537186631
49.34078823737067
49.56454048411246
49.78684898824658
50.00752703132395
50.22646656071001
50.44366373877298
50.659229672676986
50.87338076381683
51.086407872058594
51.29862838202054
51.51032827853389
51.72170195188236
51.93279681516143
52.14346971675869
52.35336345416639
52.561913067805364
52.768388867490124
52.97197129779111
53.17183204293462
53.36717924189953
53.55723541668956
53.74116655732008
53.91804583539568
54.086956970320855
54.24726537910639
54.39892993197753
54.54263451901182
54.67962450298856
54.81135529115948
54.93916472553862
55.06409781540184
55.18687703324841
55.30794300515
55.42749602809839
55.54550718215697
55.66170711138093
55.775587062956646
55.886455030564335
55.99357435611027
56.0963694043675
56.19462763345082
56.28860204441328
56.378959483075676
56.46660540448853
56.55247330238927
56.63735809203911
56.721824518190154
56.80617996643882
56.890484678629555
56.97457474276913
57.0580825777505
57.140449401143776
57.220932645648645
57.29861800159351
57.372448612139884
57.441278693984906
57.50394272266145
57.5593108022296
57.60629611667363
57.64381294805191
57.6707478921019
57.68605158517508
57.689010853622705
57.67960525700871
57.658710938680684
57.62797318316738
57.58940786889428
57.54495746754379
57.49617972827235
57.44410777523302
57.38923854477743
57.33160373050881
57.270903893863434
57.206698480838625
57.13862546681907
57.06658670722826
56.99081677776215
56.91178629251168
56.829959755964865
56.74548125478095
56.657875939742276
56.56586473596806
56.467428674094876
56.36027244850075
56.24266105292145
56.1142112015082
55.97604913705971
55.83021929172679
55.67884644147249
55.52357663166848
55.36542446678359
55.20488344088832
55.042129657897895
54.877215966320556
54.71021121653016
54.54127271732385
54.37065956541151
54.1987059730324
54.025776987134016
53.85222481742848
53.678356012253786
53.50441218073025
53.33056222097464
53.15690221697435
52.98345929728994
52.810196708362795
52.63701843565999
52.46377260467297
52.290253562671374
52.11620304262564
51.94131122274973
51.765218866147976
51.58752203816982
51.4077810504988
51.22553507828963
51.04032310904513
50.85171037450048
50.65931735164715
50.4628464010517
50.262100073292586
50.05698584139946
49.84750453194516
49.63372307286939
49.415734919423464
49.19361268250568
48.967357191542156
48.73684666537202
48.501790543618306
48.261696324801775
48.015864610483476
47.763434327584534
47.503498359497456
47.23528825829668
46.95838409126769
46.672867120999456
46.37934093289352
46.07881116703041
45.77248663904228
45.46158751349125
45.14721519233594
44.83029320162244
44.51156067050573
44.191594197992636
43.87083970845378
43.54964386340367
43.228280572408664
42.906971559872694
42.58590150973395
42.265228830947514
41.94509311434838
41.6256201915721
41.30692550499163
40.9891163135354
40.672293110797916
40.356550519565964
40.0419778451124
39.72865941154316
39.41667476495216
34.434679085414444
34.702341320055645
34.97131434888895
35.24156479333478
35.51305783298031