# vtk DataFile Version 3.0
Chemokine Concentration and Gradient Data
ASCII
DATASET STRUCTURED_POINTS
DIMENSIONS 164 360 1
ORIGIN 3166.2 2614.2 0
SPACING 9.986503067484664 9.972423398328692 1
POINT_DATA 59040
SCALARS concentration float 1
LOOKUP_TABLE default
90.62834718097022
96.1603776702321
101.68433156207401
107.03919945071716
112.14050644570888
117.0660495840884
121.77526202417931
126.27101624790349
130.68354032089078
134.88409430747362
138.78760076507538
142.29854725402225
145.4934536639075
148.59224878725726
151.48965262423732
154.24923559185945
157.12274969704626
160.09303761970062
163.0870192631493
165.8087884086026
168.06173782569834
169.9293535009255
171.75565639054778
173.50875714061664
174.89576421317815
176.26465770254217
177.90661541587122
179.64429782659496
181.25930587640363
182.55928609433795
183.57292664496532
184.46191635516388
185.3465782119179
186.27447377234344
187.15224651722895
187.78040889894854
188.2951206399164
188.64045328684196
188.77202321162667
188.85948878305865
188.97782163175978
189.25128011288373
189.6663753664361
189.85353599427296
189.57285847607415
189.0346812732763
188.46464104933105
187.9173940097882
187.1211475600285
185.8776155033119
184.21248849844105
182.35500025998329
180.52986546964647
178.8628608324028
177.50268504677481
176.4553812565468
175.67793112864663
175.16530960160594
174.9375601528028
174.9795637030261
175.18367338779436
175.42697004926242
175.51191295058365
175.39525855831542
175.17597917333788
174.99118661476666
174.9371747523299
174.79316782045763
174.40711075353025
173.75403009871292
172.97091475058377
172.4346147891387
172.3540195026152
172.76538033720857
173.46593335936507
174.09469970660425
174.43578091375363
174.43202580814844
174.227461938221
173.93136318314325
173.53511146989484
173.09779592347812
172.7925525439508
172.73370877674952
173.03552601705138
173.70343065895526
174.4065045371961
174.77856469693066
174.7044954349569
174.44007538753516
173.97416912258282
173.33202387210312
172.84358481867426
172.60815689427207
172.4579646216921
172.5141439806439
172.65877603076163
172.76434365649868
172.96426734114513
173.42235411164802
174.22648312522549
175.3895544675944
176.79529400288868
178.26829328588573
179.68439887188705
180.82681617557125
181.9072942333112
183.16571500266002
184.66748493246115
186.2714891159154
187.5182850701328
188.45372740011743
189.15494656918122
189.7163978867258
190.21678895501196
190.5202982799812
190.72597136268598
191.04078926213668
191.46052203468892
191.94744018246763
192.4764507799401
192.84464596486353
192.9707008008405
192.8101959539297
192.52769330408165
192.10832762501863
191.43538630545586
190.64770726168402
190.00686563374364
189.3308986806014
188.37013641800164
187.2957194376394
186.1068674239094
184.7983151439189
183.47409815599747
181.99406784902789
180.3126565502991
178.81587187375072
177.61934181212854
176.53646068863577
175.15737108089084
173.5708329760003
171.94383684893654
169.89531652804297
167.3131300268835
164.45824676856623
161.61941518473972
158.77430780936808
155.87484349380946
152.74615868518933
149.28629684252422
145.49208152144294
141.4107794750053
137.16985693406264
132.8102950690114
128.33087613596314
123.7301044058214
119.01322870119475
114.16795622096157
109.15537562443161
103.87396862126646
98.33940609019072
92.82779361997339
87.49692490059356
96.2196033733251
102.58077124793856
108.9166098554204
115.00640322016012
120.35619474909238
125.84042572317897
130.97534111230487
135.57674831570642
140.54187694594285
145.16068176076084
149.57721107744533
153.14754264815267
156.22899646521802
159.62241287007294
162.5650843247346
165.09923552222074
168.22651771163044
171.52694026042144
175.34760254139837
178.3759791226599
181.27021817197283
182.2247064022457
184.0591677225328
186.69292259168603
187.22180322817496
188.23469156190922
190.25886549965796
192.39812496389595
194.57167882834625
195.84004670574566
196.80088365417004
197.44685265421452
198.31626423352589
199.46593246160708
201.11084630564298
201.11910957961408
201.74447788209693
202.27584388932797
202.0187836625438
202.02657610617746
201.9059619563768
202.24241223339314
203.46273102221622
204.5094237885912
203.4033576159332
202.44322387467
201.67356577374662
201.48125028192177
200.87696107509274
199.59346937402844
197.1923201614185
194.60072585786523
192.3029404958802
190.08210379580746
188.5116880358919
187.39618317166463
186.54293614711884
185.98034691209457
185.80974422417012
186.13356318846454
186.64629005286127
187.24347592364805
187.4743010977759
187.27441125909604
186.81921250299806
186.52210830792998
186.86790886084736
186.8868514268576
186.4871271541985
185.64729721927435
183.8760499327786
182.94740738671786
182.8087913267683
183.54944864135499
185.13573563185108
186.1213509594073
186.75909569365552
186.52725867310522
186.0977479024517
185.71218688157543
185.12398065338346
184.33845114251346
183.7545360782503
183.51903761533092
183.8863317802582
185.1299541042523
186.49768205450172
187.37455315002254
186.73519821555846
186.6850870322066
186.04648349205024
184.49393468237616
183.72739253378876
184.1144977697946
183.24760619474017
183.53130495479257
183.9015596290463
183.70540780002526
183.6190090556544
183.9635161875983
184.83515725257055
186.32666821596553
188.2300797147323
190.09912596007683
192.11959306702198
192.88584672645214
193.86864680714766
195.16381474800488
197.0284953766492
199.87384575434996
200.90047731200937
201.94486685701477
202.51523035424034
202.96185110121314
203.80518417620334
203.8705533296176
203.67691182022818
204.0565415128749
204.61558787719068
205.1686187220104
206.23419008419629
206.68967064751703
207.15605322544698
206.48717787708216
206.4394139829951
205.9694425808281
205.06016212685836
203.78117434510068
203.39361137093258
203.2514652261528
201.73602436883854
200.69520721532845
199.38437752137537
197.77985077691122
196.47250402309353
195.06093821509853
192.56756846357504
190.85196711299997
189.8568027454623
189.5499717656925
187.8835927580817
186.1491026569346
185.31801698377467
183.10770390165675
179.97144473326819
176.371931609175
173.34320319524346
170.3184940652711
167.7022828109908
164.42702103329202
160.78224567295075
156.6348241444395
151.96534925439406
147.3195263015395
142.59218787632642
137.74813271432092
132.76025826657056
127.68097432740502
122.48370443623786
117.17762582819088
111.44587998297207
104.80148343890636
98.5193348564805
92.59236654793582
101.86242705450132
109.54304148717782
117.60299612193647
123.25248408577554
128.62584925129647
134.59604602584983
139.85007175229626
144.97013990311223
150.04737704262948
154.63046468423752
159.09457736723468
163.7009129792781
167.34837665463857
171.61361372708012
173.64571112564303
176.12496896509225
179.2543990358114
182.66283963628487
186.2108376310304
189.59003443266985
192.22694868719194
194.4670567415665
196.39335772755757
198.16245201353212
199.3082899491199
199.95969498489978
202.1388868669116
204.05519555377361
207.24840610625694
210.1066023949953
209.88096381408937
210.04493776308857
211.2050088902713
212.01212759349147
213.17952327477892
213.90576148084207
215.47962248268715
215.3604183059198
215.5273472828255
215.60945692591326
215.07007228483766
215.67159540089185
215.93247138644074
216.54140246137231
216.33032278950662
215.7066844485621
214.75485716070173
214.33808295728807
214.11319300287616
212.02085118449324
209.18788302611225
207.06130398764094
203.8413099027379
201.48838751920385
199.81359356352672
198.96590510836714
197.90684572708193
197.19327721255547
196.94341450077405
197.51284160490053
198.32047828299815
198.7245846846647
198.66822227146872
197.9020733189672
197.99189272366254
197.26869060765964
197.25269547817126
197.71494453564816
197.7358948123928
196.68698341817043
194.81953409496046
193.4464381371219
193.2011798658274
193.99332552950085
195.57016628443526
197.14467890742154
197.52513215623406
198.17898875474037
197.68256382193135
196.92063890757078
196.23702302296246
195.2688277362884
194.85438018240933
194.5075738368121
194.7365329395983
195.93206670280944
197.74476404707514
198.68705773202373
198.3291101619238
198.0813883946577
197.2797546497662
195.5519954032308
194.61240673921696
194.08779874554827
193.95571824651742
194.9113141824978
195.5827698584027
195.56932927722863
194.53602491856185
194.73637176751913
195.70992105260453
196.98106485164556
199.02445839684123
201.48854640047395
203.83087358722685
204.85894057982023
206.7965967293231
207.3614218701234
209.29257183977003
212.85982643837787
214.37352650269722
215.682003073005
216.08410499920222
216.75666239501655
217.32851940707823
217.19644181082316
216.63925653329966
217.30885909985793
218.4161166005543
218.48632122978503
219.18476244158418
219.86081865643578
219.49171124369462
220.224995172687
220.7562060899281
218.85174752555136
218.14045380781738
216.93681883603085
216.68959805368755
216.69211538597386
215.10276010748254
213.5258113155811
212.68055381251588
211.1848866686083
209.61330818238085
207.73228554242849
204.80398112161876
203.04744018144757
201.9205572538687
201.29476765006095
200.09971216146764
198.46817716479492
196.71312605790158
195.77516039580985
192.572455599305
189.32015194331714
184.39759323384123
181.45132929892586
178.72200552540463
175.74844590775672
172.25744635281745
168.22563594679949
163.0766486408584
158.215106472173
153.0727409243468
147.9186189149001
142.4240493965415
136.96235498152924
131.55762691392903
125.21999372895905
118.48382752506014
111.2111277655548
104.29310698421281
97.77562414893856
107.25034635083954
115.20643097415748
123.18543346282344
130.14270105777138
136.20748287564263
141.81619767019512
147.16663927417687
152.95276507445107
158.47505706691305
164.01204153771297
168.0838599587506
172.7878883416275
177.27417487071764
180.7929998756453
184.09572722236518
187.09153758399393
190.23066822074642
194.10845437253218
196.8856652989182
200.30221460640914
203.2563696196295
205.45759731615237
206.4852193919749
208.6427365434113
209.66716475566483
210.95717061657868
212.50972549316714
214.89256709272945
217.75557254335888
219.59600854356142
220.3782057711853
221.3637479271226
223.02884431827738
223.86279616393725
224.37628252920007
225.50743266535952
226.64733702109436
226.94297531657088
227.21220050266314
228.08895953391072
227.91955596491246
227.48945447163572
227.51008918684101
227.6858608432075
227.98239330903513
227.55357108236097
227.1659778311916
226.19216265533254
225.19109724734034
223.06412305224933
219.76463011525155
217.07546922181004
214.65858982158323
212.79088813889408
210.82217375522103
209.96431116860106
210.16603719301568
208.8202981463751
208.10451387007183
208.42110749620286
209.13355794803653
209.1815981199032
207.94301929167364
207.45150221834717
207.46286755632266
207.42861648407003
207.46421478701544
207.65923353370692
207.721637197934
207.282380863365
205.2053673473459
203.65893362309353
203.38455606304132
204.21052720601418
206.1248665830203
206.82563846773158
207.67322811784518
208.06927311780532
207.78038309164106
206.10250957273811
205.4629751375402
205.3889448521915
205.65595130946195
205.2575734784118
205.77348200123737
206.25168939366833
206.70284055712895
207.01571733118206
207.75742151318474
208.06098495840217
207.52310187271252
206.64759439557807
206.11744841075412
204.64229705641205
204.39251997299388
205.4627259173357
206.0663324437209
205.90733738815726
205.2907556735748
205.35549821256495
206.19722077966102
207.17767822352232
209.13908488790162
211.67277373228592
213.574435123424
216.14772691786158
217.7876425678418
219.15963673925197
220.59711114537154
223.58659371095405
226.40997597799415
227.7109296473956
228.81420074812897
229.2606486822135
229.56648286173072
228.92952631422483
228.69832903580445
228.78994650453012
230.10460468111717
230.8013056402142
230.84604041378964
230.75004485755954
231.15016853066209
232.1792883977851
232.19375441855036
231.74019635979974
231.21459084361345
229.92698042076861
229.43117084725753
228.03797182352628
227.0498703948629
225.9531613519061
224.93685118591338
223.78836736312073
221.4214699355187
218.91219602346723
217.25476093116413
214.3319745375378
213.42678690912274
211.90090435865048
210.69606111617517
209.23476414597226
207.91491017826007
206.108436925385
202.94354185493987
199.1975475172829
194.8187834433612
191.5717188059836
189.11826361015363
186.46289718398376
183.0996503161639
179.12833504613343
174.36238630317843
169.74375333439158
163.9710594224893
158.79001823899515
152.51880175150868
146.12303930143696
140.07393311772225
132.85253191278372
125.2674644398563
117.58577270663774
110.12178873154404
103.00384981527283
112.41343973082685
121.05430036299677
129.88162745669322
137.1395325978803
143.507434605099
149.43554550426322
154.55285873890242
160.39222321687728
166.66395920012545
171.93334735824587
176.88088660571918
180.95106605766486
185.31531887678793
189.34957432932936
193.59453289956795
196.92399977896127
200.33495622583956
203.2345414852577
207.03633535712638
210.5939741014563
214.2335145228857
214.8705065622433
216.43899602293655
217.29666504792368
219.2262225946685
220.8276190605451
222.91378231367818
225.5616979553827
228.09110384110974
230.00909744236597
230.99684723029546
232.2934812130997
233.43427884232082
234.4055896619052
235.43966971041766
236.3312072798318
237.82278660890458
238.1438260667376
238.34514576466657
239.9143709854776
238.74401730997536
237.9481127897182
238.64527797516533
238.10000974982768
238.5191551104284
238.22167413744015
237.84539091733146
236.56860836353607
235.0748789034198
233.35872902873942
230.4599470138396
226.89828293769767
224.15679102942232
222.2915356159355
221.14247425325541
220.017821825909
220.14158988443612
220.29424353377328
218.65853851733894
218.68368052437404
219.33288649479564
218.3708135517881
217.52872137164255
217.21657377658553
218.40267450619407
218.34554331626745
218.16209008559386
217.99503375835326
217.94519610949786
216.26038475106301
214.76808658997282
213.36627814117062
213.34004063662786
214.3948397154844
215.3216462248602
216.09544066860389
216.7046121942057
216.02040872036082
215.72904163937343
214.63663000952837
214.77615220543606
214.53528075412473
214.88071057577508
214.40913260662802
214.16322631021265
214.5867842215042
216.10342362096435
215.80191230943026
216.97882814939192
217.52269685081092
217.22743025667938
217.111821949345
215.83356568830882
214.7117051474169
214.2422169756817
215.34980034993077
215.42044121870754
215.65285184986067
215.9571805874447
215.82172531702372
216.2462635184818
217.24597855488136
219.20064981571824
221.04951694872548
223.2097500489076
225.41971993626518
228.0554911083338
229.89040603714773
231.24249134038266
233.35899233953333
236.02423664457726
237.66520211425998
239.36345908102575
240.70276295867103
241.02009478233475
240.3184002178035
239.970110707228
239.99412104180877
240.62036003830414
241.75140275027087
241.37255866568557
241.5629522610576
242.5457018976757
243.17662662309874
243.27911953481015
243.78117744037908
243.5878824566428
241.99226486383665
240.35382157129862
239.39911137865346
238.9389663684097
238.18259640421593
237.6928851699961
235.5028766092058
233.00354909453438
229.4728962172504
226.94188437345377
224.72763737989024
223.08319658328264
221.764512214087
220.85544078734964
219.09941211334427
217.4203002954711
215.91602446529606
212.58718085458858
209.0039736830686
204.94155557041665
201.44108222597143
199.13017207331038
196.76364986288823
193.63699065473662
189.12176185837345
185.2566709837417
180.40237997027435
174.66077386108714
167.88569504904888
161.52229883245715
154.2432377782616
147.49060086564785
140.02538460109392
132.29106589404714
124.29477321106307
116.04470214694582
108.23309380142756
117.27788478045902
126.78223541131257
136.21320738292778
143.8892660466981
150.14641648377912
156.19662276861322
162.13207992472323
167.79534405459634
174.297630465259
179.46606590176287
184.2163544081938
188.4784098410909
193.56811724104335
197.3197435259081
200.96366549520522
204.01986838098009
206.81097111096082
210.61482706083444
215.07343097219524
219.67447033762053
221.1461652135536
223.27792674178687
225.406681947528
225.82047689966234
227.24700160454285
229.6253094124655
232.08003549030977
234.8689469913411
236.82078296442415
238.23947448961226
240.4309278395109
241.80383479355626
242.2665948159883
243.33422936762676
245.32694624177964
247.28898223208708
247.3303616436743
247.90160092397255
248.67924389064987
248.60568520183944
248.2561490946082
247.6288521007862
247.91074707993445
247.54221921412335
247.70224265948355
247.25376974340455
246.21419130799228
245.7982273927933
244.6209215178009
243.17339415833274
240.380258185015
236.4077837647766
233.3263306677112
231.31172942885365
230.13200597315335
229.70057502003797
229.27129777798166
229.11819745263287
228.2853923198821
227.10832091510815
226.85341289004526
227.24775660144334
226.35999565329877
226.57380199802395
227.17610904638008
228.10128771949815
227.5855573593712
227.5724707847049
227.3501199895647
225.56096562439348
223.3559664507596
222.56754296975333
222.96587640861668
224.3043150232088
224.95849621830777
224.45372608494418
223.5391764382049
222.82825103183845
222.56116740352368
222.34488886037698
222.11264152100804
222.1926962223387
222.34452039235282
221.46092803117784
221.44251058340507
222.48029289882535
223.48721165531134
224.59579552344044
225.23356602126373
225.3777089266676
224.79390935013572
225.50761677989502
224.52042198738317
223.9592513544697
223.61179268528753
223.5217664707725
224.23009804417148
225.21390955608618
226.68303247767318
226.71976783183675
226.6553799853404
227.1577413095623
228.9604246430665
230.86292937889672
233.20733550654077
235.21682573800524
237.56537696414782
239.65392972750377
241.45954678152057
242.5128602042351
244.02381277339404
246.0712809857404
249.14718930421816
250.82576014903242
251.22384460251078
250.98513349139128
250.29353240842104
250.5400224730404
251.4227896515287
252.33120870626814
252.45199397548276
252.12244295180398
252.67424904697603
253.43818687406818
253.66678002838688
254.34889839413944
253.87284037422413
253.24217989496654
251.47229473790028
250.24388687720594
249.26530952042987
249.05918232369663
249.1379012157791
246.3284187677639
242.81308983617944
240.40484110252652
237.214743855493
234.70293159741598
232.52845820583175
231.37644664506576
230.40395376334516
229.00656390337642
227.47922890215096
225.89342236754578
222.48329155151688
218.60701134224826
214.62666259069505
210.96204497599078
208.61311368040018
206.77691310381735
203.12662127548387
198.54662606929227
194.23484284088872
190.31877741250727
184.23494667030346
176.8323886599546
169.17743835854992
161.75051011605035
154.43273520529902
146.9883248788301
139.34963327192412
131.28341391860383
121.8963795405911
113.37005817609696
121.69092080368618
131.09529963377383
140.70198547763513
149.31220162070207
156.17844616258316
162.72678266751416
169.1974953572564
174.99737103140512
180.72238573644742
185.97312464307277
190.57954933559398
195.34782929853785
200.22153167471123
203.9117150664009
207.35331922526098
209.2067836633183
211.9440240881195
216.01138826164717
220.6499642725434
224.81773070757558
227.3768068347982
230.0323501426743
232.45687373627902
233.96299550143422
235.33566049425966
237.75932522495881
240.8752601815591
243.11958178558444
245.24204372137723
246.21187376653188
248.30404793754613
249.88002007380877
250.2365527389469
251.58420147904076
253.18119958217244
255.80739098566798
256.01706044131777
256.99577593280895
257.6374539093534
257.3068889241884
256.9193969336626
256.85475062569924
257.16393772287034
256.45711485752935
256.06334788872596
255.1185414219208
253.9342457155119
253.2473161666001
253.03261443756358
251.7655902068689
249.17902149840594
245.57053011751182
242.45205446129364
240.3143736796975
239.11935524565243
238.91888795824696
238.6703490036175
238.57766917271783
237.38529353449667
235.69195571875022
234.77389487593874
234.46748188911883
234.4039249632713
234.76989831929194
236.2107727538792
237.16009166304295
236.489323033143
236.46950053697785
235.31149540971163
233.4271894615973
231.9440175863577
231.48465383072804
232.28213786680985
233.93767921611916
234.00140176267348
232.99030593991105
231.28194897201152
230.0315470908496
229.50408589471232
229.55703404104395
228.797154880654
228.66443870555938
228.49672869046472
228.41026085464077
228.74266103582073
229.6153597061365
230.40499002675037
230.52276435838334
231.3657496728818
231.13082600470233
230.88553915804798
231.2943783194072
231.97889727489414
231.46911347770532
231.62426350210671
231.72996391483787
233.1974455984788
234.64393951029106
235.7239492451429
236.47592574370088
236.36181311070746
236.7039380050567
237.95678569458832
240.32582238291263
242.69189117070425
244.82451131415792
247.56015603555164
248.9181281624835
249.80025441654718
251.1007266569492
252.38700211269145
254.53115272634733
257.13789920952985
259.4988556932592
259.5275673446197
259.81638651331514
260.3400943909289
260.8510772098379
261.93054356058667
262.96059764292045
262.8881893622783
262.4646799448699
262.6338086518181
262.53789576225995
262.87800818709854
264.09653853931934
263.4525748955927
262.7381997644477
261.62770151275475
260.00582430367564
259.04360147533015
258.75559034980864
257.8285129820841
254.79450511687935
251.86684227078365
249.2806774190785
246.6851511935749
244.30587807054457
241.67123192456594
239.92300904693667
238.98077868651004
238.17711246832167
236.48248150658026
233.65988217323817
230.50719495425352
227.92521618210912
223.58206888199427
220.16216894611796
217.56481327056574
215.48290066111642
211.98787890518258
207.5309909910874
202.88230349478312
198.7670459878319
192.7688963656676
185.4031788587456
177.38520469643458
169.5354055472514
161.78330715866917
153.78038620165086
146.18345570876656
136.8262685832234
127.3755228439093
118.31946545386948
125.83498381750651
135.3347519291782
144.72973897688516
153.41838093018714
161.86057796722977
168.62837462466564
175.34739389485932
181.73546127141304
186.41415103807978
191.09937866098818
196.19570744101716
201.32933645375346
205.77897743758624
209.62308673877087
212.04616027531216
213.73245739212192
216.37089036225464
220.13086020597785
224.9451706070528
229.4495909159186
232.96664015486058
236.0805653893502
239.22288502348638
241.6362818627319
243.11082142806953
246.24294392445523
249.2043015712253
250.53317436985387
252.48197948819
253.81789323330543
255.4652935626175
256.7064590895725
257.7592965799885
259.3917571907056
260.6455439539315
262.4349602556388
263.0518459373802
264.46198308654164
265.7042150829438
265.37687795578603
264.64955469795217
264.638409746701
265.43044890485714
265.42683509401553
264.7325261174523
263.1405355205239
261.8886393661344
262.08697886705903
260.09723256229563
259.0653754861132
257.6906586967398
254.6732457708521
251.66063248616737
249.39864677351412
248.09677281632716
247.66374620636975
247.57978416122148
247.22662295450027
246.4443091482146
244.4791439503803
243.01581346778553
242.46298468319944
243.09957136446633
243.02332513525678
243.9792349623009
244.6198389083188
244.53907767377464
245.0338469250894
244.14300344636644
241.9089157705788
240.44261996364983
240.09888974038864
241.16973494192933
243.21900132875945
242.4775863661634
241.11543671824234
239.05050274984228
237.54385222624558
236.72455341858543
236.18580964253619
235.42538135463465
235.02722393278768
235.05712337561297
235.72242017341628
236.28448002056268
237.12878293803666
236.91617474809402
236.3880660365128
236.83951360362522
237.12591775493883
236.50430400940746
236.86038177584396
237.3994111531758
237.73313721114604
238.13613274758055
239.17091282125028
240.54917363541477
241.5310046194772
242.5521120382655
244.20754139466447
244.48602112628095
244.9401871692927
246.08927478495664
248.432762496627
251.01437972823396
253.21814383524978
254.752682372228
256.99331961706764
257.8853108539336
259.478656534911
260.88195230689246
263.7395893321074
266.3386712108143
267.12432632205224
267.7450545380342
268.5467229723361
269.7507223317188
271.10055479886904
271.6241772845162
272.5261700235001
272.25793930361436
272.68775039682674
272.6569451730772
272.268467529909
272.16716848956304
272.8055124772001
272.868381668151
272.025958129446
270.4605239213559
269.4789922511023
268.55210785411106
266.79135966604036
264.74750563866223
262.8506756787225
260.5673167501139
257.94246588392434
255.54576928133048
253.3003337531221
251.05966408311895
248.7288575145511
247.01979194586363
245.8820207336006
244.67482376631284
242.1289508045376
238.8644402371769
235.7715228283453
232.6894572598384
229.25518258575073
226.07073295936752
223.14286464648535
219.24815544452275
214.84194626285927
210.52342504103612
205.39893384836446
200.36397661368846
192.74616433213714
184.71092438451538
176.9870210123757
168.77460282056967
160.3640360033047
151.69925602529995
142.35769653003865
132.97359045885756
123.02907449956122
129.86087535675827
139.8473643219072
149.0747907106285
157.92217002840295
166.88461627790008
174.42741714088436
180.97401577471862
186.80365476715062
191.56091659637434
196.44769586796397
202.71563897509614
206.20540834521674
210.7201113909221
214.09477436781373
216.15187132761025
217.9880496793142
220.56920632648504
224.15639048104785
228.95234233712497
233.43711854295518
237.05159725921285
240.271842701532
243.5759627328774
246.8660215116484
249.7978703351128
252.98031278391403
256.13813895037026
257.71947962455005
258.9964263667832
261.05536751844573
262.3443342838672
263.0951050355875
264.35697042744545
265.72250324297397
267.3539596627998
268.93910753022993
269.94201192441284
270.9387344095476
272.24065631019374
272.01854498733644
271.63587524299817
272.0505938908347
272.95760310733135
273.1260150247394
272.0256333353776
271.08045435501907
270.39667856809666
268.9418362264963
267.72187088153004
266.37168975744237
264.38801718436287
262.1189923513472
260.2338625675866
258.4214238848202
257.2965336218926
256.1020795857985
255.30040467506987
255.26071214086662
254.59273992815903
253.3721356654484
251.29084882447458
250.49511467643842
250.91269658556232
251.29260982366975
251.91191369348752
252.90823284441691
252.80465249679835
252.80717495841367
252.3319204924462
250.4332198023839
248.84356681850926
248.3999584865433
249.07741680273594
250.2822605162884
251.19769272817584
249.98889194388875
246.99004965604132
245.33620491645263
244.50742049877732
244.09728191126243
242.4860756556463
242.0031689475999
242.14625757835108
242.4813471605581
243.04247552144707
242.63820116814148
242.1963568383932
241.83013918231939
241.7835891376059
241.95579314531616
242.28790079093224
243.19254659194334
244.23454685048338
244.60612462634398
245.03091582295207
245.86343695222698
246.90167726083675
248.00411438519714
249.3360692172688
251.16564311259592
252.5759174435425
253.29889341578394
254.04578923662598
255.9206859675736
258.8064205445761
260.843611797932
262.500448037742
264.5389819501476
265.8456646045596
267.17667210094174
269.16263771447893
271.7745401400923
274.5650370371949
275.4807608193128
276.4247578059603
277.0290682905257
278.1395434128895
280.14819474490145
280.8534393723796
280.92160805878694
281.7684897289891
281.2698137765016
281.222053576722
280.95413760394524
281.5595823942352
281.6893793895665
281.5049593457652
280.0279146177494
278.89991574031313
278.2699654533103
277.8835053643644
275.0668759221258
272.63420968334526
271.1914867561901
269.21645173794064
266.95962501827256
264.0474430732004
262.3241643430373
259.5851222288633
257.7172374228146
255.49939587483138
254.47581756761613
252.93211092369566
251.31380403144328
247.76797034664867
245.41213658352333
242.09755730939932
237.92356486224762
234.26393424987768
231.17052984876264
226.53010188234157
221.00376563739732
216.21723766137117
211.86283389425847
206.90345311278878
199.5910762232267
191.1311741217576
182.44130835877132
174.86975321152963
165.86306720353033
157.15080724364924
147.5424828471565
137.3992233642074
127.37931919664199
133.69142273331047
144.1507835566994
153.5113234601176
162.38249643789436
171.20376021443204
178.9561227652501
185.5760865090735
190.8832779306146
196.27324915619567
201.28097331683355
205.9248935843409
210.64567619824516
214.67089164041278
219.02777834864932
220.7283208995278
222.32884146121478
224.69179352937542
227.95398647932765
232.28756786679267
236.73638392289237
240.07945649689836
244.00822261104403
247.78019588107028
251.44263321782998
255.46320190090793
259.4654084931951
262.61301727621805
264.402970391621
265.4439206199732
267.1625805052365
268.73123064662246
270.14831052734866
270.5943727760655
271.80479450286043
273.4053215086402
274.8124504579384
275.8092262281273
276.49250356541836
277.21913641635194
278.02265834520296
278.2447598144749
278.3108480089
279.0896919123948
279.2700243787331
278.9119210094017
279.1635491779039
278.63289989228053
277.3403696182836
275.3406942703677
273.80630553889705
271.69879096032855
268.72708678923647
266.96315276255575
266.34253308268137
265.44333858785166
264.21620806112566
262.63980699653825
262.5527941362313
261.9804625318827
261.15573639330586
259.1533324294319
258.2470886487943
259.1060130809907
259.6639574381554
260.06549360692225
260.54403280240723
260.49509703500684
260.2238255490329
260.3389576124233
259.0050697441517
257.1182528449677
256.5576562542833
257.15320535593844
258.04130722177524
258.3539421242505
257.50447625243504
254.86975220659784
253.28013576775953
252.92167943355037
251.24813337914682
249.55469403564027
249.1226638134717
249.47920137794813
248.8159714101649
248.80243328867343
248.97508723710237
248.25145729678766
247.7572529175287
247.48414907969047
247.58718745031555
248.34715623950967
250.17874689390987
250.99611921772478
252.1340202572643
252.53826168298045
253.1752824879949
254.16517630758725
255.35742787425391
256.5920504727634
258.3249184999422
259.58611657385353
260.7626979582675
261.2012649776006
262.7443482309358
264.88032793171055
267.4240402736287
269.6671208404626
272.0875196239198
273.22566318152076
275.56852342148653
277.3661739995325
279.64494954773824
281.1450388416604
282.69022221871705
283.3623519868347
284.4893111910698
285.67810946473435
287.12741432663654